Program Version,EnergyPlus, Version 22.2.0-c249759bad, YMD=2022.11.30 11:28
1,5,Environment Title[],Latitude[deg],Longitude[deg],Time Zone[],Elevation[m]
2,8,Day of Simulation[],Month[],Day of Month[],DST Indicator[1=yes 0=no],Hour[],StartMinute[],EndMinute[],DayType
3,5,Cumulative Day of Simulation[],Month[],Day of Month[],DST Indicator[1=yes 0=no],DayType  ! When Daily Meters Requested
4,2,Cumulative Days of Simulation[],Month[]  ! When Monthly Meters Requested
5,1,Cumulative Days of Simulation[] ! When Run Period Meters Requested
6,1,Calendar Year of Simulation[] ! When Annual Meters Requested
267,1,DistrictHeating:Facility [J] !Hourly
316,1,DistrictCooling:Facility [J] !Hourly
10,1,Electricity:Facility [J] !Hourly
End of Data Dictionary
1,CHICAGO ANN HTG 99% CONDNS DB,  41.98, -87.92,  -6.00, 201.00
2,1, 1,21, 0, 1, 0.00,60.00,WinterDesignDay
10,4744800.0
267,670077283.4371414
316,0.0
2,1, 1,21, 0, 2, 0.00,60.00,WinterDesignDay
10,4744800.0
267,670184381.8498728
316,0.0
2,1, 1,21, 0, 3, 0.00,60.00,WinterDesignDay
10,4744800.0
267,670285177.7744968
316,0.0
2,1, 1,21, 0, 4, 0.00,60.00,WinterDesignDay
10,4744800.0
267,670380163.6408749
316,0.0
2,1, 1,21, 0, 5, 0.00,60.00,WinterDesignDay
10,4744800.0
267,670469735.7986953
316,0.0
2,1, 1,21, 0, 6, 0.00,60.00,WinterDesignDay
10,4744800.0
267,670554237.7460731
316,0.0
2,1, 1,21, 0, 7, 0.00,60.00,WinterDesignDay
10,9489600.0
267,667305772.0137008
316,0.0
2,1, 1,21, 0, 8, 0.00,60.00,WinterDesignDay
10,9489600.0
267,667179402.7445736
316,0.0
2,1, 1,21, 0, 9, 0.00,60.00,WinterDesignDay
10,28468800.0
267,645502742.4120675
316,0.0
2,1, 1,21, 0,10, 0.00,60.00,WinterDesignDay
10,28468800.0
267,643445905.7995079
316,0.0
2,1, 1,21, 0,11, 0.00,60.00,WinterDesignDay
10,28468800.0
267,642515879.7140167
316,0.0
2,1, 1,21, 0,12, 0.00,60.00,WinterDesignDay
10,28468800.0
267,641900471.2335949
316,0.0
2,1, 1,21, 0,13, 0.00,60.00,WinterDesignDay
10,14234400.0
267,659700846.8910775
316,0.0
2,1, 1,21, 0,14, 0.00,60.00,WinterDesignDay
10,14234400.0
267,661131469.4097793
316,0.0
2,1, 1,21, 0,15, 0.00,60.00,WinterDesignDay
10,14234400.0
267,661608428.4183315
316,0.0
2,1, 1,21, 0,16, 0.00,60.00,WinterDesignDay
10,14234400.0
267,661809236.0001802
316,0.0
2,1, 1,21, 0,17, 0.00,60.00,WinterDesignDay
10,14234400.0
267,661929187.2533581
316,0.0
2,1, 1,21, 0,18, 0.00,60.00,WinterDesignDay
10,4744800.0
267,668719249.1621388
316,0.0
2,1, 1,21, 0,19, 0.00,60.00,WinterDesignDay
10,4744800.0
267,669182703.5356231
316,0.0
2,1, 1,21, 0,20, 0.00,60.00,WinterDesignDay
10,4744800.0
267,669410522.6425601
316,0.0
2,1, 1,21, 0,21, 0.00,60.00,WinterDesignDay
10,4744800.0
267,669586250.7347257
316,0.0
2,1, 1,21, 0,22, 0.00,60.00,WinterDesignDay
10,4744800.0
267,669733397.2005916
316,0.0
2,1, 1,21, 0,23, 0.00,60.00,WinterDesignDay
10,4744800.0
267,669864785.7414579
316,0.0
2,1, 1,21, 0,24, 0.00,60.00,WinterDesignDay
10,4744800.0
267,669985743.881117
316,0.0
1,CHICAGO ANN CLG 1% CONDNS DB=>MWB,  41.98, -87.92,  -6.00, 201.00
2,1, 7,21, 0, 1, 0.00,60.00,SummerDesignDay
10,4744800.0
267,0.0
316,132189957.5060455
2,1, 7,21, 0, 2, 0.00,60.00,SummerDesignDay
10,4744800.0
267,0.0
316,118030406.68525234
2,1, 7,21, 0, 3, 0.00,60.00,SummerDesignDay
10,4744800.0
267,0.0
316,102662100.55143201
2,1, 7,21, 0, 4, 0.00,60.00,SummerDesignDay
10,4744800.0
267,0.0
316,87682342.75251886
2,1, 7,21, 0, 5, 0.00,60.00,SummerDesignDay
10,4744800.0
267,0.0
316,74750492.73757645
2,1, 7,21, 0, 6, 0.00,60.00,SummerDesignDay
10,9489600.0
267,0.0
316,86048719.91873068
2,1, 7,21, 0, 7, 0.00,60.00,SummerDesignDay
10,9489600.0
267,0.0
316,105092058.01980753
2,1, 7,21, 0, 8, 0.00,60.00,SummerDesignDay
10,28468800.0
267,0.0
316,147497024.23857594
2,1, 7,21, 0, 9, 0.00,60.00,SummerDesignDay
10,85406400.0
267,0.0
316,266640253.41450122
2,1, 7,21, 0,10, 0.00,60.00,SummerDesignDay
10,85406400.0
267,0.0
316,306596370.89495325
2,1, 7,21, 0,11, 0.00,60.00,SummerDesignDay
10,85406400.0
267,0.0
316,327863514.6463607
2,1, 7,21, 0,12, 0.00,60.00,SummerDesignDay
10,85406400.0
267,0.0
316,349763921.62247014
2,1, 7,21, 0,13, 0.00,60.00,SummerDesignDay
10,85406400.0
267,0.0
316,350197029.8523498
2,1, 7,21, 0,14, 0.00,60.00,SummerDesignDay
10,85406400.0
267,0.0
316,389189204.61917675
2,1, 7,21, 0,15, 0.00,60.00,SummerDesignDay
10,85406400.0
267,0.0
316,415817288.0675241
2,1, 7,21, 0,16, 0.00,60.00,SummerDesignDay
10,85406400.0
267,0.0
316,426388622.05376464
2,1, 7,21, 0,17, 0.00,60.00,SummerDesignDay
10,85406400.0
267,0.0
316,427805381.0980515
2,1, 7,21, 0,18, 0.00,60.00,SummerDesignDay
10,47448000.0
267,0.0
316,341836878.30084044
2,1, 7,21, 0,19, 0.00,60.00,SummerDesignDay
10,28468800.0
267,0.0
316,284898958.97932667
2,1, 7,21, 0,20, 0.00,60.00,SummerDesignDay
10,28468800.0
267,0.0
316,250102989.4766873
2,1, 7,21, 0,21, 0.00,60.00,SummerDesignDay
10,18979200.0
267,0.0
316,217510850.19375902
2,1, 7,21, 0,22, 0.00,60.00,SummerDesignDay
10,18979200.0
267,0.0
316,195440534.63662764
2,1, 7,21, 0,23, 0.00,60.00,SummerDesignDay
10,9489600.0
267,0.0
316,168096682.6125907
2,1, 7,21, 0,24, 0.00,60.00,SummerDesignDay
10,4744800.0
267,0.0
316,147518102.22213364
End of Data
 Number of Records Written=         144
