Program Version,EnergyPlus, Version 22.2.0-c249759bad, YMD=2022.11.30 11:28
1,5,Environment Title[],Latitude[deg],Longitude[deg],Time Zone[],Elevation[m]
2,8,Day of Simulation[],Month[],Day of Month[],DST Indicator[1=yes 0=no],Hour[],StartMinute[],EndMinute[],DayType
3,5,Cumulative Day of Simulation[],Month[],Day of Month[],DST Indicator[1=yes 0=no],DayType  ! When Daily Report Variables Requested
4,2,Cumulative Days of Simulation[],Month[]  ! When Monthly Report Variables Requested
5,1,Cumulative Days of Simulation[] ! When Run Period Report Variables Requested
6,1,Calendar Year of Simulation[] ! When Annual Report Variables Requested
7,1,Environment,Site Outdoor Air Drybulb Temperature [C] !Hourly
129,1,FULL BUILDING - 1 ZONE,Zone Mean Radiant Temperature [C] !Hourly
130,1,FULL BUILDING - 1 ZONE,Zone Air System Sensible Heating Energy [J] !Hourly
215,1,FULL BUILDING - 1 ZONE,Zone Air System Sensible Cooling Energy [J] !Hourly
264,1,FULL BUILDING - 1 ZONE,Zone Air Temperature [C] !Hourly
267,1,DistrictHeating:Facility [J] !Hourly
316,1,DistrictCooling:Facility [J] !Hourly
10,1,Electricity:Facility [J] !Hourly
End of Data Dictionary
1,CHICAGO ANN HTG 99% CONDNS DB,  41.98, -87.92,  -6.00, 201.00
2,1, 1,21, 0, 1, 0.00,60.00,WinterDesignDay
7,-17.3
129,17.93640759357639
130,670077283.4371414
215,0.0
264,23.0
10,4744800.0
267,670077283.4371414
316,0.0
2,1, 1,21, 0, 2, 0.00,60.00,WinterDesignDay
7,-17.3
129,17.934216466945905
130,670184381.8498728
215,0.0
264,23.0
10,4744800.0
267,670184381.8498728
316,0.0
2,1, 1,21, 0, 3, 0.00,60.00,WinterDesignDay
7,-17.3
129,17.93215728487864
130,670285177.7744969
215,0.0
264,23.0
10,4744800.0
267,670285177.7744968
316,0.0
2,1, 1,21, 0, 4, 0.00,60.00,WinterDesignDay
7,-17.3
129,17.930220191411387
130,670380163.6408747
215,0.0
264,23.0
10,4744800.0
267,670380163.6408749
316,0.0
2,1, 1,21, 0, 5, 0.00,60.00,WinterDesignDay
7,-17.3
129,17.928396915121773
130,670469735.7986953
215,0.0
264,23.000000000000004
10,4744800.0
267,670469735.7986953
316,0.0
2,1, 1,21, 0, 6, 0.00,60.00,WinterDesignDay
7,-17.3
129,17.926680124762708
130,670554237.7460732
215,0.0
264,23.0
10,4744800.0
267,670554237.7460731
316,0.0
2,1, 1,21, 0, 7, 0.00,60.00,WinterDesignDay
7,-17.3
129,17.932169897121586
130,667305772.0137008
215,0.0
264,23.0
10,9489600.0
267,667305772.0137008
316,0.0
2,1, 1,21, 0, 8, 0.00,60.00,WinterDesignDay
7,-17.3
129,17.933928805830824
130,667179402.7445737
215,0.0
264,23.0
10,9489600.0
267,667179402.7445736
316,0.0
2,1, 1,21, 0, 9, 0.00,60.00,WinterDesignDay
7,-17.3
129,18.011314950527524
130,645502742.4120675
215,0.0
264,23.0
10,28468800.0
267,645502742.4120675
316,0.0
2,1, 1,21, 0,10, 0.00,60.00,WinterDesignDay
7,-17.3
129,18.044876345419897
130,643445905.7995079
215,0.0
264,23.0
10,28468800.0
267,643445905.7995079
316,0.0
2,1, 1,21, 0,11, 0.00,60.00,WinterDesignDay
7,-17.3
129,18.06149658084292
130,642515879.7140168
215,0.0
264,22.999999999999996
10,28468800.0
267,642515879.7140167
316,0.0
2,1, 1,21, 0,12, 0.00,60.00,WinterDesignDay
7,-17.3
129,18.07325018088551
130,641900471.233595
215,0.0
264,23.0
10,28468800.0
267,641900471.2335949
316,0.0
2,1, 1,21, 0,13, 0.00,60.00,WinterDesignDay
7,-17.3
129,18.01345005267535
130,659700846.8910775
215,0.0
264,23.000000000000007
10,14234400.0
267,659700846.8910775
316,0.0
2,1, 1,21, 0,14, 0.00,60.00,WinterDesignDay
7,-17.3
129,17.991694008278138
130,661131469.4097793
215,0.0
264,23.0
10,14234400.0
267,661131469.4097793
316,0.0
2,1, 1,21, 0,15, 0.00,60.00,WinterDesignDay
7,-17.3
129,17.984137277939496
130,661608428.4183314
215,0.0
264,23.0
10,14234400.0
267,661608428.4183315
316,0.0
2,1, 1,21, 0,16, 0.00,60.00,WinterDesignDay
7,-17.3
129,17.980721652134456
130,661809236.0001802
215,0.0
264,23.000000000000004
10,14234400.0
267,661809236.0001802
316,0.0
2,1, 1,21, 0,17, 0.00,60.00,WinterDesignDay
7,-17.3
129,17.97854403668428
130,661929187.2533581
215,0.0
264,23.0
10,14234400.0
267,661929187.2533581
316,0.0
2,1, 1,21, 0,18, 0.00,60.00,WinterDesignDay
7,-17.3
129,17.96198178748515
130,668719249.1621389
215,0.0
264,23.0
10,4744800.0
267,668719249.1621388
316,0.0
2,1, 1,21, 0,19, 0.00,60.00,WinterDesignDay
7,-17.3
129,17.95413605609614
130,669182703.5356231
215,0.0
264,23.0
10,4744800.0
267,669182703.5356231
316,0.0
2,1, 1,21, 0,20, 0.00,60.00,WinterDesignDay
7,-17.3
129,17.949858800542664
130,669410522.6425601
215,0.0
264,23.0
10,4744800.0
267,669410522.6425601
316,0.0
2,1, 1,21, 0,21, 0.00,60.00,WinterDesignDay
7,-17.3
129,17.946422632082367
130,669586250.7347257
215,0.0
264,23.0
10,4744800.0
267,669586250.7347257
316,0.0
2,1, 1,21, 0,22, 0.00,60.00,WinterDesignDay
7,-17.3
129,17.943462094862937
130,669733397.2005916
215,0.0
264,23.0
10,4744800.0
267,669733397.2005916
316,0.0
2,1, 1,21, 0,23, 0.00,60.00,WinterDesignDay
7,-17.3
129,17.940784702110463
130,669864785.741458
215,0.0
264,23.0
10,4744800.0
267,669864785.7414579
316,0.0
2,1, 1,21, 0,24, 0.00,60.00,WinterDesignDay
7,-17.3
129,17.938308617682143
130,669985743.881117
215,0.0
264,23.0
10,4744800.0
267,669985743.881117
316,0.0
1,CHICAGO ANN CLG 1% CONDNS DB=>MWB,  41.98, -87.92,  -6.00, 201.00
2,1, 7,21, 0, 1, 0.00,60.00,SummerDesignDay
7,22.32475
129,25.670440132153498
130,0.0
215,96690018.81808963
264,24.0
10,4744800.0
267,0.0
316,132189957.5060455
2,1, 7,21, 0, 2, 0.00,60.00,SummerDesignDay
7,21.816499999999998
129,25.442626215233968
130,0.0
215,83464289.0283073
264,24.0
10,4744800.0
267,0.0
316,118030406.68525234
2,1, 7,21, 0, 3, 0.00,60.00,SummerDesignDay
7,21.455375000000004
129,25.24156927943363
130,0.0
215,71863470.3860024
264,23.999999999999993
10,4744800.0
267,0.0
316,102662100.55143201
2,1, 7,21, 0, 4, 0.00,60.00,SummerDesignDay
7,21.134375000000002
129,25.06357330370274
130,0.0
215,61377639.9267632
264,24.0
10,4744800.0
267,0.0
316,87682342.75251886
2,1, 7,21, 0, 5, 0.00,60.00,SummerDesignDay
7,20.88025
129,24.911155367899998
130,0.0
215,52325344.916303515
264,24.0
10,4744800.0
267,0.0
316,74750492.73757645
2,1, 7,21, 0, 6, 0.00,60.00,SummerDesignDay
7,20.933750000000003
129,24.9937992640135
130,0.0
215,60234103.94311148
264,24.0
10,9489600.0
267,0.0
316,86048719.91873068
2,1, 7,21, 0, 7, 0.00,60.00,SummerDesignDay
7,21.482125000000003
129,25.204957974261042
130,0.0
215,73564440.61386529
264,24.0
10,9489600.0
267,0.0
316,105092058.01980753
2,1, 7,21, 0, 8, 0.00,60.00,SummerDesignDay
7,22.899875
129,25.495093876804518
130,0.0
215,103247916.96700314
264,24.0
10,28468800.0
267,0.0
316,147497024.23857594
2,1, 7,21, 0, 9, 0.00,60.00,SummerDesignDay
7,24.852625000000003
129,26.104733202679498
130,0.0
215,186648177.39015085
264,24.0
10,85406400.0
267,0.0
316,266640253.41450122
2,1, 7,21, 0,10, 0.00,60.00,SummerDesignDay
7,26.751875
129,26.60025021669262
130,0.0
215,215106998.30416378
264,24.0
10,85406400.0
267,0.0
316,306596370.89495325
2,1, 7,21, 0,11, 0.00,60.00,SummerDesignDay
7,28.437124999999998
129,27.03243843042328
130,0.0
215,239200036.5435542
264,24.0
10,85406400.0
267,0.0
316,327863514.6463607
2,1, 7,21, 0,12, 0.00,60.00,SummerDesignDay
7,29.707749999999997
129,27.42481227987748
130,0.0
215,259912320.58926967
264,24.0
10,85406400.0
267,0.0
316,349763921.62247014
2,1, 7,21, 0,13, 0.00,60.00,SummerDesignDay
7,30.644000000000002
129,27.75748341520974
130,0.0
215,270498255.70331067
264,24.0
10,85406400.0
267,0.0
316,350197029.8523498
2,1, 7,21, 0,14, 0.00,60.00,SummerDesignDay
7,31.299374999999998
129,28.21462987301414
130,0.0
215,302021054.38308823
264,24.0
10,85406400.0
267,0.0
316,389189204.61917675
2,1, 7,21, 0,15, 0.00,60.00,SummerDesignDay
7,31.5
129,28.579601221835993
130,0.0
215,321773009.2555204
264,24.0
10,85406400.0
267,0.0
316,415817288.0675241
2,1, 7,21, 0,16, 0.00,60.00,SummerDesignDay
7,31.098750000000003
129,28.806947524781602
130,0.0
215,333169023.42204726
264,24.0
10,85406400.0
267,0.0
316,426388622.05376464
2,1, 7,21, 0,17, 0.00,60.00,SummerDesignDay
7,30.322999999999997
129,28.875899049546305
130,0.0
215,336138480.0302272
264,24.0
10,85406400.0
267,0.0
316,427805381.0980515
2,1, 7,21, 0,18, 0.00,60.00,SummerDesignDay
7,29.33325
129,28.54085014336316
130,0.0
215,280843540.82849884
264,24.0
10,47448000.0
267,0.0
316,341836878.30084044
2,1, 7,21, 0,19, 0.00,60.00,SummerDesignDay
7,27.928875
129,28.00793090347704
130,0.0
215,239292939.40304077
264,24.0
10,28468800.0
267,0.0
316,284898958.97932667
2,1, 7,21, 0,20, 0.00,60.00,SummerDesignDay
7,26.591375
129,27.41105543416272
130,0.0
215,206429334.2933395
264,24.0
10,28468800.0
267,0.0
316,250102989.4766873
2,1, 7,21, 0,21, 0.00,60.00,SummerDesignDay
7,25.548125
129,26.95502335346589
130,0.0
215,176607300.25073734
264,24.0
10,18979200.0
267,0.0
316,217510850.19375902
2,1, 7,21, 0,22, 0.00,60.00,SummerDesignDay
7,24.585125
129,26.574685533294414
130,0.0
215,156031248.0405848
264,24.000000000000004
10,18979200.0
267,0.0
316,195440534.63662764
2,1, 7,21, 0,23, 0.00,60.00,SummerDesignDay
7,23.755875000000003
129,26.2314602457032
130,0.0
215,131604227.44404423
264,24.0
10,9489600.0
267,0.0
316,168096682.6125907
2,1, 7,21, 0,24, 0.00,60.00,SummerDesignDay
7,23.006875
129,25.93025539747102
130,0.0
215,111810914.23533235
264,24.0
10,4744800.0
267,0.0
316,147518102.22213364
End of Data
 Number of Records Written=         384
