Program Version,EnergyPlus, Version 22.2.0-c249759bad, YMD=2022.11.30 11:28
1,5,Environment Title[],Latitude[deg],Longitude[deg],Time Zone[],Elevation[m]
2,8,Day of Simulation[],Month[],Day of Month[],DST Indicator[1=yes 0=no],Hour[],StartMinute[],EndMinute[],DayType
3,5,Cumulative Day of Simulation[],Month[],Day of Month[],DST Indicator[1=yes 0=no],DayType  ! When Daily Meters Requested
4,2,Cumulative Days of Simulation[],Month[]  ! When Monthly Meters Requested
5,1,Cumulative Days of Simulation[] ! When Run Period Meters Requested
6,1,Calendar Year of Simulation[] ! When Annual Meters Requested
267,1,DistrictHeating:Facility [J] !Hourly
316,1,DistrictCooling:Facility [J] !Hourly
10,1,Electricity:Facility [J] !Hourly
End of Data Dictionary
1,CHICAGO ANN HTG 99% CONDNS DB,  41.98, -87.92,  -6.00, 201.00
2,1, 1,21, 0, 1, 0.00,60.00,WinterDesignDay
10,4744800.0
267,277132959.16777724
316,0.0
2,1, 1,21, 0, 2, 0.00,60.00,WinterDesignDay
10,4744800.0
267,401122051.4993538
316,0.0
2,1, 1,21, 0, 3, 0.00,60.00,WinterDesignDay
10,4744800.0
267,440529653.4119749
316,0.0
2,1, 1,21, 0, 4, 0.00,60.00,WinterDesignDay
10,4744800.0
267,459176799.599721
316,0.0
2,1, 1,21, 0, 5, 0.00,60.00,WinterDesignDay
10,4744800.0
267,478076845.1311892
316,0.0
2,1, 1,21, 0, 6, 0.00,60.00,WinterDesignDay
10,4744800.0
267,499965316.80651677
316,0.0
2,1, 1,21, 0, 7, 0.00,60.00,WinterDesignDay
10,9489600.0
267,501563473.9641776
316,0.0
2,1, 1,21, 0, 8, 0.00,60.00,WinterDesignDay
10,9489600.0
267,523121100.72707725
316,0.0
2,1, 1,21, 0, 9, 0.00,60.00,WinterDesignDay
10,28468800.0
267,514168735.02423215
316,0.0
2,1, 1,21, 0,10, 0.00,60.00,WinterDesignDay
10,28468800.0
267,532902855.6910238
316,0.0
2,1, 1,21, 0,11, 0.00,60.00,WinterDesignDay
10,28468800.0
267,536765796.8855411
316,0.0
2,1, 1,21, 0,12, 0.00,60.00,WinterDesignDay
10,28468800.0
267,556388240.2681417
316,0.0
2,1, 1,21, 0,13, 0.00,60.00,WinterDesignDay
10,14234400.0
267,587437912.0186802
316,0.0
2,1, 1,21, 0,14, 0.00,60.00,WinterDesignDay
10,14234400.0
267,600495655.6490512
316,0.0
2,1, 1,21, 0,15, 0.00,60.00,WinterDesignDay
10,14234400.0
267,617478770.2449766
316,0.0
2,1, 1,21, 0,16, 0.00,60.00,WinterDesignDay
10,14234400.0
267,625165456.4966675
316,0.0
2,1, 1,21, 0,17, 0.00,60.00,WinterDesignDay
10,14234400.0
267,642396374.493526
316,0.0
2,1, 1,21, 0,18, 0.00,60.00,WinterDesignDay
10,4744800.0
267,657316102.6023647
316,0.0
2,1, 1,21, 0,19, 0.00,60.00,WinterDesignDay
10,4744800.0
267,675691320.1637003
316,0.0
2,1, 1,21, 0,20, 0.00,60.00,WinterDesignDay
10,4744800.0
267,682792271.1249237
316,0.0
2,1, 1,21, 0,21, 0.00,60.00,WinterDesignDay
10,4744800.0
267,693776540.5242374
316,0.0
2,1, 1,21, 0,22, 0.00,60.00,WinterDesignDay
10,4744800.0
267,701088155.1654379
316,0.0
2,1, 1,21, 0,23, 0.00,60.00,WinterDesignDay
10,4744800.0
267,718796766.6779222
316,0.0
2,1, 1,21, 0,24, 0.00,60.00,WinterDesignDay
10,4744800.0
267,726720372.2526149
316,0.0
1,CHICAGO ANN CLG 1% CONDNS DB=>MWB,  41.98, -87.92,  -6.00, 201.00
2,1, 7,21, 0, 1, 0.00,60.00,SummerDesignDay
10,4744800.0
267,0.0
316,413384848.16900074
2,1, 7,21, 0, 2, 0.00,60.00,SummerDesignDay
10,4744800.0
267,0.0
316,238376627.24204162
2,1, 7,21, 0, 3, 0.00,60.00,SummerDesignDay
10,4744800.0
267,0.0
316,189193586.2797988
2,1, 7,21, 0, 4, 0.00,60.00,SummerDesignDay
10,4744800.0
267,0.0
316,150644503.40219605
2,1, 7,21, 0, 5, 0.00,60.00,SummerDesignDay
10,4744800.0
267,0.0
316,120625358.91298951
2,1, 7,21, 0, 6, 0.00,60.00,SummerDesignDay
10,9489600.0
267,0.0
316,111765823.53327902
2,1, 7,21, 0, 7, 0.00,60.00,SummerDesignDay
10,9489600.0
267,0.0
316,107249571.81101198
2,1, 7,21, 0, 8, 0.00,60.00,SummerDesignDay
10,28468800.0
267,0.0
316,125132773.16094103
2,1, 7,21, 0, 9, 0.00,60.00,SummerDesignDay
10,85406400.0
267,0.0
316,216560682.59387398
2,1, 7,21, 0,10, 0.00,60.00,SummerDesignDay
10,85406400.0
267,0.0
316,228083073.9862994
2,1, 7,21, 0,11, 0.00,60.00,SummerDesignDay
10,85406400.0
267,0.0
316,251687433.97002965
2,1, 7,21, 0,12, 0.00,60.00,SummerDesignDay
10,85406400.0
267,0.0
316,256778211.28531158
2,1, 7,21, 0,13, 0.00,60.00,SummerDesignDay
10,85406400.0
267,0.0
316,248460541.64731038
2,1, 7,21, 0,14, 0.00,60.00,SummerDesignDay
10,85406400.0
267,0.0
316,268506925.80837953
2,1, 7,21, 0,15, 0.00,60.00,SummerDesignDay
10,85406400.0
267,0.0
316,293513374.3918758
2,1, 7,21, 0,16, 0.00,60.00,SummerDesignDay
10,85406400.0
267,0.0
316,278555045.68504417
2,1, 7,21, 0,17, 0.00,60.00,SummerDesignDay
10,85406400.0
267,0.0
316,283504333.3046973
2,1, 7,21, 0,18, 0.00,60.00,SummerDesignDay
10,47448000.0
267,0.0
316,195638306.39156237
2,1, 7,21, 0,19, 0.00,60.00,SummerDesignDay
10,28468800.0
267,0.0
316,124015359.54085729
2,1, 7,21, 0,20, 0.00,60.00,SummerDesignDay
10,28468800.0
267,0.0
316,72352450.3550224
2,1, 7,21, 0,21, 0.00,60.00,SummerDesignDay
10,18979200.0
267,0.0
316,19531819.735245682
2,1, 7,21, 0,22, 0.00,60.00,SummerDesignDay
10,18979200.0
267,0.0
316,993126.189899398
2,1, 7,21, 0,23, 0.00,60.00,SummerDesignDay
10,9489600.0
267,0.0
316,0.0
2,1, 7,21, 0,24, 0.00,60.00,SummerDesignDay
10,4744800.0
267,0.0
316,0.0
End of Data
 Number of Records Written=         144
