Program Version,EnergyPlus, Version 22.2.0-c249759bad, YMD=2022.11.30 11:28
1,5,Environment Title[],Latitude[deg],Longitude[deg],Time Zone[],Elevation[m]
2,8,Day of Simulation[],Month[],Day of Month[],DST Indicator[1=yes 0=no],Hour[],StartMinute[],EndMinute[],DayType
3,5,Cumulative Day of Simulation[],Month[],Day of Month[],DST Indicator[1=yes 0=no],DayType  ! When Daily Report Variables Requested
4,2,Cumulative Days of Simulation[],Month[]  ! When Monthly Report Variables Requested
5,1,Cumulative Days of Simulation[] ! When Run Period Report Variables Requested
6,1,Calendar Year of Simulation[] ! When Annual Report Variables Requested
7,1,Environment,Site Outdoor Air Drybulb Temperature [C] !Hourly
129,1,FULL BUILDING - 1 ZONE,Zone Mean Radiant Temperature [C] !Hourly
130,1,FULL BUILDING - 1 ZONE,Zone Air System Sensible Heating Energy [J] !Hourly
215,1,FULL BUILDING - 1 ZONE,Zone Air System Sensible Cooling Energy [J] !Hourly
264,1,FULL BUILDING - 1 ZONE,Zone Air Temperature [C] !Hourly
267,1,DistrictHeating:Facility [J] !Hourly
316,1,DistrictCooling:Facility [J] !Hourly
10,1,Electricity:Facility [J] !Hourly
End of Data Dictionary
1,CHICAGO ANN HTG 99% CONDNS DB,  41.98, -87.92,  -6.00, 201.00
2,1, 1,21, 0, 1, 0.00,60.00,WinterDesignDay
7,-17.3
129,14.503554691264416
130,276918050.8659909
215,0.0
264,15.385684104540466
10,4744800.0
267,277132959.16777724
316,0.0
2,1, 1,21, 0, 2, 0.00,60.00,WinterDesignDay
7,-17.3
129,13.474406051324804
130,400578208.3373427
215,0.0
264,15.49257794408962
10,4744800.0
267,401122051.4993538
316,0.0
2,1, 1,21, 0, 3, 0.00,60.00,WinterDesignDay
7,-17.3
129,13.2450923781897
130,438886528.8671472
215,0.0
264,15.782045966985253
10,4744800.0
267,440529653.4119749
316,0.0
2,1, 1,21, 0, 4, 0.00,60.00,WinterDesignDay
7,-17.3
129,13.18936006044316
130,457949733.9517294
215,0.0
264,16.054229198816188
10,4744800.0
267,459176799.599721
316,0.0
2,1, 1,21, 0, 5, 0.00,60.00,WinterDesignDay
7,-17.3
129,13.195195656480152
130,476809274.4237732
215,0.0
264,16.34862773127178
10,4744800.0
267,478076845.1311892
316,0.0
2,1, 1,21, 0, 6, 0.00,60.00,WinterDesignDay
7,-17.3
129,13.25762078618958
130,498667748.4007117
215,0.0
264,16.72732037525694
10,4744800.0
267,499965316.80651677
316,0.0
2,1, 1,21, 0, 7, 0.00,60.00,WinterDesignDay
7,-17.3
129,13.322088252832259
130,501535743.93107265
215,0.0
264,16.892012276333887
10,9489600.0
267,501563473.9641776
316,0.0
2,1, 1,21, 0, 8, 0.00,60.00,WinterDesignDay
7,-17.3
129,13.374531732780259
130,522093328.25431633
215,0.0
264,17.22042922804076
10,9489600.0
267,523121100.72707725
316,0.0
2,1, 1,21, 0, 9, 0.00,60.00,WinterDesignDay
7,-17.3
129,13.556138965807351
130,513094918.263567
215,0.0
264,17.544776578243027
10,28468800.0
267,514168735.02423215
316,0.0
2,1, 1,21, 0,10, 0.00,60.00,WinterDesignDay
7,-17.3
129,13.694053792649356
130,530949760.30591786
215,0.0
264,17.902732015493473
10,28468800.0
267,532902855.6910238
316,0.0
2,1, 1,21, 0,11, 0.00,60.00,WinterDesignDay
7,-17.3
129,13.828139022338238
130,536098749.22499657
215,0.0
264,18.108518619961124
10,28468800.0
267,536765796.8855411
316,0.0
2,1, 1,21, 0,12, 0.00,60.00,WinterDesignDay
7,-17.3
129,13.955390894759603
130,554966206.4588617
215,0.0
264,18.50396994187705
10,28468800.0
267,556388240.2681417
316,0.0
2,1, 1,21, 0,13, 0.00,60.00,WinterDesignDay
7,-17.3
129,14.002206722892382
130,585995529.0263276
215,0.0
264,18.743339917618023
10,14234400.0
267,587437912.0186802
316,0.0
2,1, 1,21, 0,14, 0.00,60.00,WinterDesignDay
7,-17.3
129,14.090289778313071
130,599234934.1286907
215,0.0
264,19.009175137620808
10,14234400.0
267,600495655.6490512
316,0.0
2,1, 1,21, 0,15, 0.00,60.00,WinterDesignDay
7,-17.3
129,14.239454026133739
130,616037849.6018112
215,0.0
264,19.395081529201185
10,14234400.0
267,617478770.2449766
316,0.0
2,1, 1,21, 0,16, 0.00,60.00,WinterDesignDay
7,-17.3
129,14.394096890428536
130,624777636.092309
215,0.0
264,19.66312211369688
10,14234400.0
267,625165456.4966675
316,0.0
2,1, 1,21, 0,17, 0.00,60.00,WinterDesignDay
7,-17.3
129,14.524620973787517
130,640342564.8009095
215,0.0
264,19.974043501125433
10,14234400.0
267,642396374.493526
316,0.0
2,1, 1,21, 0,18, 0.00,60.00,WinterDesignDay
7,-17.3
129,14.661666640205471
130,655944636.0017093
215,0.0
264,20.233245948203262
10,4744800.0
267,657316102.6023647
316,0.0
2,1, 1,21, 0,19, 0.00,60.00,WinterDesignDay
7,-17.3
129,14.801211730064484
130,672612597.6047909
215,0.0
264,20.559463500032493
10,4744800.0
267,675691320.1637003
316,0.0
2,1, 1,21, 0,20, 0.00,60.00,WinterDesignDay
7,-17.3
129,14.994984714573333
130,681657679.5592335
215,0.0
264,20.890367937373632
10,4744800.0
267,682792271.1249237
316,0.0
2,1, 1,21, 0,21, 0.00,60.00,WinterDesignDay
7,-17.3
129,15.151056044216611
130,691847335.317229
215,0.0
264,21.14041479301061
10,4744800.0
267,693776540.5242374
316,0.0
2,1, 1,21, 0,22, 0.00,60.00,WinterDesignDay
7,-17.3
129,15.332807013672792
130,700226933.0176017
215,0.0
264,21.450654053380667
10,4744800.0
267,701088155.1654379
316,0.0
2,1, 1,21, 0,23, 0.00,60.00,WinterDesignDay
7,-17.3
129,15.509790869358572
130,716946513.190237
215,0.0
264,21.80251473867107
10,4744800.0
267,718796766.6779222
316,0.0
2,1, 1,21, 0,24, 0.00,60.00,WinterDesignDay
7,-17.3
129,15.699846034879
130,725005481.6074393
215,0.0
264,22.08424117310238
10,4744800.0
267,726720372.2526149
316,0.0
1,CHICAGO ANN CLG 1% CONDNS DB=>MWB,  41.98, -87.92,  -6.00, 201.00
2,1, 7,21, 0, 1, 0.00,60.00,SummerDesignDay
7,22.32475
129,29.834487982416437
130,0.0
215,284486083.5968545
264,25.198118586231303
10,4744800.0
267,0.0
316,413384848.16900074
2,1, 7,21, 0, 2, 0.00,60.00,SummerDesignDay
7,21.816499999999998
129,28.768585790546755
130,0.0
215,199361949.4382478
264,25.485333084317656
10,4744800.0
267,0.0
316,238376627.24204162
2,1, 7,21, 0, 3, 0.00,60.00,SummerDesignDay
7,21.455375000000004
129,28.367136964176115
130,0.0
215,150556088.76069164
264,25.85582459057646
10,4744800.0
267,0.0
316,189193586.2797988
2,1, 7,21, 0, 4, 0.00,60.00,SummerDesignDay
7,21.134375000000002
129,28.1016203992566
130,0.0
215,114469015.53388512
264,26.148762574742328
10,4744800.0
267,0.0
316,150644503.40219605
2,1, 7,21, 0, 5, 0.00,60.00,SummerDesignDay
7,20.88025
129,27.89685651024226
130,0.0
215,87914915.03668667
264,26.331878881668665
10,4744800.0
267,0.0
316,120625358.91298951
2,1, 7,21, 0, 6, 0.00,60.00,SummerDesignDay
7,20.933750000000003
129,27.991196917859124
130,0.0
215,78418861.28798878
264,26.648698526483898
10,9489600.0
267,0.0
316,111765823.53327902
2,1, 7,21, 0, 7, 0.00,60.00,SummerDesignDay
7,21.482125000000003
129,28.213553861803916
130,0.0
215,75449269.08870146
264,26.877293397151846
10,9489600.0
267,0.0
316,107249571.81101198
2,1, 7,21, 0, 8, 0.00,60.00,SummerDesignDay
7,22.899875
129,28.561239666456036
130,0.0
215,87702056.82847296
264,27.253734457664265
10,28468800.0
267,0.0
316,125132773.16094103
2,1, 7,21, 0, 9, 0.00,60.00,SummerDesignDay
7,24.852625000000003
129,29.180529389848633
130,0.0
215,152430995.1311189
264,27.479114745566246
10,85406400.0
267,0.0
316,216560682.59387398
2,1, 7,21, 0,10, 0.00,60.00,SummerDesignDay
7,26.751875
129,29.73829385353317
130,0.0
215,160773544.74306056
264,27.832257841571476
10,85406400.0
267,0.0
316,228083073.9862994
2,1, 7,21, 0,11, 0.00,60.00,SummerDesignDay
7,28.437124999999998
129,30.2448177263844
130,0.0
215,176649496.76808715
264,28.054967106375933
10,85406400.0
267,0.0
316,251687433.97002965
2,1, 7,21, 0,12, 0.00,60.00,SummerDesignDay
7,29.707749999999997
129,30.73367238994618
130,0.0
215,180301860.57970476
264,28.391102718277352
10,85406400.0
267,0.0
316,256778211.28531158
2,1, 7,21, 0,13, 0.00,60.00,SummerDesignDay
7,30.644000000000002
129,31.207975909741894
130,0.0
215,174889452.46272725
264,28.76777806528964
10,85406400.0
267,0.0
316,248460541.64731038
2,1, 7,21, 0,14, 0.00,60.00,SummerDesignDay
7,31.299374999999998
129,31.780336516312552
130,0.0
215,189059377.23038504
264,29.093270592912194
10,85406400.0
267,0.0
316,268506925.80837953
2,1, 7,21, 0,15, 0.00,60.00,SummerDesignDay
7,31.5
129,32.25675922469271
130,0.0
215,206004409.29986727
264,29.259583904639292
10,85406400.0
267,0.0
316,293513374.3918758
2,1, 7,21, 0,16, 0.00,60.00,SummerDesignDay
7,31.098750000000003
129,32.62394283668648
130,0.0
215,196408564.9623972
264,29.70635199006703
10,85406400.0
267,0.0
316,278555045.68504417
2,1, 7,21, 0,17, 0.00,60.00,SummerDesignDay
7,30.322999999999997
129,32.84721915406408
130,0.0
215,198801903.8280765
264,29.9073938084388
10,85406400.0
267,0.0
316,283504333.3046973
2,1, 7,21, 0,18, 0.00,60.00,SummerDesignDay
7,29.33325
129,32.72226483155349
130,0.0
215,140183787.65063733
264,30.224664216756324
10,47448000.0
267,0.0
316,195638306.39156237
2,1, 7,21, 0,19, 0.00,60.00,SummerDesignDay
7,27.928875
129,32.4001105637801
130,0.0
215,95316857.53078108
264,30.528924568106547
10,28468800.0
267,0.0
316,124015359.54085729
2,1, 7,21, 0,20, 0.00,60.00,SummerDesignDay
7,26.591375
129,32.013923508757266
130,0.0
215,52298808.21093341
264,30.91102598393686
10,28468800.0
267,0.0
316,72352450.3550224
2,1, 7,21, 0,21, 0.00,60.00,SummerDesignDay
7,25.548125
129,31.746568364036627
130,0.0
215,13731355.84951163
264,31.171603601924343
10,18979200.0
267,0.0
316,19531819.735245682
2,1, 7,21, 0,22, 0.00,60.00,SummerDesignDay
7,24.585125
129,31.536759280628882
130,0.0
215,695064.2665485058
264,31.232875167844902
10,18979200.0
267,0.0
316,993126.189899398
2,1, 7,21, 0,23, 0.00,60.00,SummerDesignDay
7,23.755875000000003
129,31.254042070976443
130,0.0
215,0.0
264,30.926210077517887
10,9489600.0
267,0.0
316,0.0
2,1, 7,21, 0,24, 0.00,60.00,SummerDesignDay
7,23.006875
129,30.933201695910626
130,0.0
215,0.0
264,30.589514421548188
10,4744800.0
267,0.0
316,0.0
End of Data
 Number of Records Written=         384
